REMARK SMILES C=CC(=O)Nc1ccc(Nc2nccc(-c3cn(C)c4ccccc34)n2)cc1
REMARK SMILES IDX 10 1 9 3 6 4 7 5 28 6 8 7 27 8 5 9 3 10 4 11 2 13 1 14 11 15
REMARK SMILES IDX 12 16 26 17 13 18 15 19 14 20 16 21 17 22 25 23 18 24 24 25
REMARK SMILES IDX 20 26 23 27 21 28 22 29 19 30
REMARK H PARENT 10 2 5 12
ROOT
ATOM      1  N   UNL     1       0.795   0.182  -0.084  1.00  0.00    -0.324 N 
ATOM      2  H   UNL     1       0.324   1.002  -0.436  1.00  0.00     0.170 HD
ENDROOT
BRANCH   1   3
ATOM      3  C   UNL     1       2.189   0.231   0.001  1.00  0.00     0.041 A 
ATOM      4  C   UNL     1       5.021   0.460   0.129  1.00  0.00     0.041 A 
ATOM      5  C   UNL     1       4.239   1.519  -0.338  1.00  0.00     0.028 A 
ATOM      6  C   UNL     1       4.382  -0.711   0.528  1.00  0.00     0.028 A 
ATOM      7  C   UNL     1       2.845   1.404  -0.399  1.00  0.00     0.028 A 
ATOM      8  C   UNL     1       2.983  -0.820   0.464  1.00  0.00     0.028 A 
BRANCH   4   9
ATOM      9  N   UNL     1       6.418   0.648   0.156  1.00  0.00    -0.323 N 
ATOM     10  C   UNL     1       7.371  -0.229   0.620  1.00  0.00     0.247 C 
ATOM     11  O   UNL     1       7.194  -1.314   1.159  1.00  0.00    -0.270 OA
ATOM     12  H   UNL     1       6.745   1.550  -0.161  1.00  0.00     0.170 HD
BRANCH  10  13
ATOM     13  C   UNL     1       8.769   0.271   0.489  1.00  0.00     0.064 C 
ATOM     14  C   UNL     1       9.228   1.024  -0.520  1.00  0.00     0.014 C 
ENDBRANCH  10  13
ENDBRANCH   4   9
ENDBRANCH   1   3
BRANCH   1  15
ATOM     15  C   UNL     1      -0.161  -0.792   0.190  1.00  0.00     0.227 A 
ATOM     16  N   UNL     1       0.168  -2.009   0.642  1.00  0.00    -0.221 NA
ATOM     17  N   UNL     1      -1.426  -0.412  -0.039  1.00  0.00    -0.213 NA
ATOM     18  C   UNL     1      -0.832  -2.878   0.869  1.00  0.00     0.117 A 
ATOM     19  C   UNL     1      -2.405  -1.311   0.194  1.00  0.00     0.078 A 
ATOM     20  C   UNL     1      -2.152  -2.581   0.659  1.00  0.00     0.049 A 
BRANCH  19  21
ATOM     21  C   UNL     1      -3.764  -0.854  -0.076  1.00  0.00     0.026 A 
ATOM     22  C   UNL     1      -4.771  -1.675  -0.554  1.00  0.00     0.096 A 
ATOM     23  C   UNL     1      -4.327   0.458   0.057  1.00  0.00     0.009 A 
ATOM     24  N   UNL     1      -5.904  -0.920  -0.709  1.00  0.00    -0.350 N 
ATOM     25  C   UNL     1      -3.824   1.705   0.491  1.00  0.00     0.011 A 
ATOM     26  C   UNL     1      -5.667   0.386  -0.340  1.00  0.00     0.048 A 
ATOM     27  C   UNL     1      -4.659   2.827   0.511  1.00  0.00     0.001 A 
ATOM     28  C   UNL     1      -6.514   1.506  -0.324  1.00  0.00     0.027 A 
ATOM     29  C   UNL     1      -5.986   2.726   0.108  1.00  0.00     0.002 A 
ATOM     30  C   UNL     1      -7.168  -1.425  -1.199  1.00  0.00     0.149 C 
ENDBRANCH  19  21
ENDBRANCH   1  15
TORSDOF 5
